                               Psi4 1.10a1.dev53

  ==> Input File <==

--------------------------------------------------------------------------

# PYTHONPATH must include directory above plugin directory.
#     Define either externally or here, then import plugin.
sys.path.insert(0, './..')
import dlpno_ccsdt_q

molecule {
0 1
N
H 1 1.017
H 1 1.017 2 107.8
H 1 1.017 2 107.8 3 120.0
symmetry c1
}

set {
  scf_type df
  mp2_type df
  basis cc-pvdz
  df_basis_mp2 cc-pvdz-ri
  pno_convergence tight
  freeze_core false
  e_convergence 1.0e-6
  r_convergence 1.0e-6
  t_cut_pno 0.0
  t_cut_do 0.0
  t_cut_do_ij 0.0
  t_cut_do_uv 0.0
  t_cut_pre 0.0
  t_cut_do_pre 0.0
  t_cut_pairs 0.0
  t_cut_mkn 0.0
  t_cut_clmo 0.0
  t_cut_cpao 0.0
  f_cut 0.0
  t_cut_tno 0.0
  t_cut_tno_pre 0.0
  t_cut_mkn_triples_pre 0.0
  t_cut_do_triples_pre 0.0
  t_cut_triples_weak 0.0
  t_cut_mkn_triples 0.0
  t_cut_do_triples 0.0
  f_cut_t 0.0
  t_cut_iter 0.0
  clear_ccsd_integrals false
}

set dlpno_ccsdt_q {
  print 1
  dlpno_cc3 false
}

energy('cc3')
energy('dlpno_ccsdt_q')

dlpno_ccsdt_q.exampleFN()
--------------------------------------------------------------------------

    Molecular point group: c1
  Charge       = 0
  Multiplicity = 1
  Basis Set: CC-PVDZ
    Blend: CC-PVDZ
  Basis Set: (CC-PVDZ AUX)
    Blend: CC-PVDZ-JKFIT
  @DF-RHF Final Energy:   -56.19459767080550
    Total Energy =                        -56.1945976708054999
 Dipole X            :          0.1698979           -0.7467370           -0.5768391
 Dipole Y            :         -0.0822721            0.3047789            0.2225069
 Dipole Z            :         -0.0000000            0.0000000           -0.0000000
 Magnitude           :                                                    0.6182658
      * MP2 total energy                      =  -56.383613723270543
    Molecular point group: c1

    Geometry (in Angstrom), charge = 0, multiplicity = 1:

       Center              X                  Y                   Z               Mass
    ------------   -----------------  -----------------  -----------------  -----------------
         N            0.057315941554    -0.023393367812     0.000000000000    14.003074004430
         H            0.057315941554     0.993606632188     0.000000000000     1.007825032230
         H           -0.426841854656    -0.334285492959     0.838585901915     1.007825032230
         H           -0.426841854656    -0.334285492959    -0.838585901915     1.007825032230

  Charge       = 0
  Multiplicity = 1
  Basis Set: CC-PVDZ
    Blend: CC-PVDZ
  Basis Set: (CC-PVDZ AUX)
    Blend: CC-PVDZ-JKFIT

    Orbital Energies [Eh]
    ---------------------

    Doubly Occupied:

       1A    -15.535206     2A     -1.124889     3A     -0.621684
       4A     -0.612520     5A     -0.411854

  @DF-RHF Final Energy:   -56.19459767080544

   => Energetics <=

    Nuclear Repulsion Energy =             11.8864634280374997
    One-Electron Energy =                 -99.5498161193319078
    Two-Electron Energy =                  31.4687550204889668
    Total Energy =                        -56.1945976708054360
 Dipole X            :          0.1698979           -0.7467370           -0.5768391
 Dipole Y            :         -0.0822721            0.3047789            0.2225069
 Dipole Z            :         -0.0000000            0.0000000           -0.0000000
 Magnitude           :                                                    0.6182658
*** Psi4 exiting successfully. Buy a developer a beer!
