                               Psi4 1.10a1.dev53

  ==> Input File <==

--------------------------------------------------------------------------

# PYTHONPATH must include directory above plugin directory.
#     Define either externally or here, then import plugin.
sys.path.insert(0, './..')
import dlpno_ccsdt_q

molecule {
  0 1
  H 0.0000 0.0000 0.0000
  C 0.0000 0.0000 1.0590
  N 0.0000 0.0000 2.2178
  O 0.0000 0.0000 3.4202
  symmetry c1
}

set {
  scf_type pk
  mp2_type conv
  basis cc-pvdz
  df_basis_mp2 cc-pvqz-ri
  pno_convergence tight
  freeze_core true
  e_convergence 1.0e-6
  r_convergence 1.0e-6
  clear_ccsd_integrals false
}

set dlpno_ccsdt_q {
  print 1
  dlpno_cc3 false
}

energy('dlpno_ccsdt_q')

dlpno_ccsdt_q.exampleFN()
--------------------------------------------------------------------------

    Molecular point group: c1

    Geometry (in Angstrom), charge = 0, multiplicity = 1:

       Center              X                  Y                   Z               Mass
    ------------   -----------------  -----------------  -----------------  -----------------
         H            0.000000000000     0.000000000000    -2.289686350222     1.007825032230
         C            0.000000000000     0.000000000000    -1.230686350222    12.000000000000
         N            0.000000000000     0.000000000000    -0.071886350222    14.003074004430
         O            0.000000000000     0.000000000000     1.130513649778    15.994914619570

  Charge       = 0
  Multiplicity = 1
  Basis Set: CC-PVDZ
    Blend: CC-PVDZ

    Orbital Energies [Eh]
    ---------------------

    Doubly Occupied:

       1A    -20.579727     2A    -15.763694     3A    -11.323794
       4A     -1.511336     5A     -1.229915     6A     -0.815741
       7A     -0.725102     8A     -0.675331     9A     -0.675331
      10A     -0.402158    11A     -0.402158

  @RHF Final Energy:  -167.64391991342507

   => Energetics <=

    Nuclear Repulsion Energy =             60.4889794169721640
    One-Electron Energy =                -348.0572243559196295
    Two-Electron Energy =                 119.9243250255224069
    Total Energy =                       -167.6439199134250657
 Dipole X            :         -0.0000000            0.0000000           -0.0000000
 Dipole Y            :         -0.0000000            0.0000000           -0.0000000
 Dipole Z            :          0.5099756           -2.1408702           -1.6308946
 Magnitude           :                                                    1.6308946
*** Psi4 exiting successfully. Buy a developer a beer!
