                               Psi4 1.10a1.dev53

  ==> Input File <==

--------------------------------------------------------------------------
# PYTHONPATH must include directory above plugin directory.
#     Define either externally or here, then import plugin.
sys.path.insert(0, './..')
import dlpno_ccsdt_q

memory 400 GB

molecule {
  0 1
  H 0.0000 0.0000 0.0000
  C 0.0000 0.0000 1.0591
  N 0.0000 0.0000 2.2179
  O 0.0000 0.0000 3.4203
  symmetry c1
}

set {
  scf_type df
  mp2_type df
  basis cc-pvtz
  df_basis_mp2 cc-pvtz-ri
  pno_convergence tight
  freeze_core true
  e_convergence 1.0e-6
  r_convergence 1.0e-6
  clear_ccsd_integrals false
}

set dlpno_ccsdt_q {
  print 1
  dlpno_cc3 false
}

energy('dlpno_ccsdt_q')

dlpno_ccsdt_q.exampleFN()
--------------------------------------------------------------------------

    Molecular point group: c1

    Geometry (in Angstrom), charge = 0, multiplicity = 1:

       Center              X                  Y                   Z               Mass
    ------------   -----------------  -----------------  -----------------  -----------------
         H            0.000000000000     0.000000000000    -2.289784006760     1.007825032230
         C            0.000000000000     0.000000000000    -1.230684006760    12.000000000000
         N            0.000000000000     0.000000000000    -0.071884006760    14.003074004430
         O            0.000000000000     0.000000000000     1.130515993240    15.994914619570

  Charge       = 0
  Multiplicity = 1
  Basis Set: CC-PVTZ
    Blend: CC-PVTZ
  Basis Set: (CC-PVTZ AUX)
    Blend: CC-PVTZ-JKFIT

    Orbital Energies [Eh]
    ---------------------

    Doubly Occupied:

       1A    -20.580213     2A    -15.759847     3A    -11.316608
       4A     -1.508853     5A     -1.227984     6A     -0.818696
       7A     -0.729727     8A     -0.677805     9A     -0.677805
      10A     -0.406413    11A     -0.406413

  @DF-RHF Final Energy:  -167.69427841567452

   => Energetics <=

    Nuclear Repulsion Energy =             60.4885848344655059
    One-Electron Energy =                -348.1449977924055474
    Two-Electron Energy =                 119.9621345422655452
    Total Energy =                       -167.6942784156745176
 Dipole X            :          0.0000000            0.0000000            0.0000000
 Dipole Y            :          0.0000000            0.0000000            0.0000000
 Dipole Z            :          0.4853267           -2.1409617           -1.6556350
 Magnitude           :                                                    1.6556350
*** Psi4 exiting successfully. Buy a developer a beer!
