                               Psi4 1.10a1.dev45

  ==> Input File <==

--------------------------------------------------------------------------

# PYTHONPATH must include directory above plugin directory.
#     Define either externally or here, then import plugin.
sys.path.insert(0, './..')
import dlpno_ccsdt_q

molecule {
O
H 1 R
H 1 R 2 A

R = .96
A = 104.5
symmetry c1
}

#molecule {
#0 1
#N
#H 1 1.017
#H 1 1.017 2 107.8
#H 1 1.017 2 107.8 3 120.0
#symmetry c1
#}

set {
  scf_type df
  mp2_type df
  basis cc-pvdz
  df_basis_mp2 cc-pvdz-ri
  pno_convergence tight
  freeze_core false
  e_convergence 1.0e-6
  r_convergence 1.0e-6
  t_cut_pno 0.0
  t_cut_do 0.0
  t_cut_do_ij 0.0
  t_cut_do_uv 0.0
  t_cut_pre 0.0
  t_cut_do_pre 0.0
  t_cut_pairs 0.0
  t_cut_mkn 0.0
  t_cut_clmo 0.0
  t_cut_cpao 0.0
  f_cut 0.0
  t_cut_tno 0.0
  t_cut_tno_pre 0.0
  t_cut_mkn_triples_pre 0.0
  t_cut_do_triples_pre 0.0
  t_cut_triples_weak 0.0
  t_cut_mkn_triples 0.0
  t_cut_do_triples 0.0
  f_cut_t 0.0
  t_cut_iter 0.0
}

set dlpno_ccsdt_q {
  print 1
}

energy('cc3')
energy('dlpno_ccsdt_q')

dlpno_ccsdt_q.exampleFN()
--------------------------------------------------------------------------

    Molecular point group: c1
  Charge       = 0
  Multiplicity = 1
  Basis Set: CC-PVDZ
    Blend: CC-PVDZ
  Basis Set: (CC-PVDZ AUX)
    Blend: CC-PVDZ-JKFIT
  @DF-RHF Final Energy:   -76.02663273512340
    Total Energy =                        -76.0266327351233997
 Dipole X            :          0.0000000            0.0000000            0.0000000
 Dipole Y            :          0.0000000            0.0000000            0.0000000
 Dipole Z            :         -0.1680332            0.9783140            0.8102808
 Magnitude           :                                                    0.8102808
      * MP2 total energy                      =  -76.230793643841508
    Molecular point group: c1

    Geometry (in Angstrom), charge = 0, multiplicity = 1:

       Center              X                  Y                   Z               Mass
    ------------   -----------------  -----------------  -----------------  -----------------
         O            0.000000000000     0.000000000000    -0.065775570547    15.994914619570
         H            0.000000000000    -0.759061990794     0.521953018286     1.007825032230
         H            0.000000000000     0.759061990794     0.521953018286     1.007825032230

  Charge       = 0
  Multiplicity = 1
  Basis Set: CC-PVDZ
    Blend: CC-PVDZ
  Basis Set: (CC-PVDZ AUX)
    Blend: CC-PVDZ-JKFIT

    Orbital Energies [Eh]
    ---------------------

    Doubly Occupied:

       1A    -20.550925     2A     -1.335311     3A     -0.697803
       4A     -0.566087     5A     -0.492948

  @DF-RHF Final Energy:   -76.02663273512336

   => Energetics <=

    Nuclear Repulsion Energy =              9.1681932964243487
    One-Electron Energy =                -123.1035071851674161
    Two-Electron Energy =                  37.9086811536197104
    Total Energy =                        -76.0266327351233571
 Dipole X            :          0.0000000            0.0000000            0.0000000
 Dipole Y            :          0.0000000            0.0000000            0.0000000
 Dipole Z            :         -0.1680332            0.9783140            0.8102808
 Magnitude           :                                                    0.8102808
*** Psi4 exiting successfully. Buy a developer a beer!
