                               Psi4 1.10a1.dev53

  ==> Input File <==

--------------------------------------------------------------------------

# PYTHONPATH must include directory above plugin directory.
#     Define either externally or here, then import plugin.
sys.path.insert(0, './..')
import dlpno_ccsdt_q

molecule {
  0 1
  O  -1.551007  -0.114520   0.000000
  H  -1.934259   0.762503   0.000000
  H  -0.599677   0.040712   0.000000
  @O   1.350625   0.111469   0.000000
  @H   1.680398  -0.373741  -0.758561
  @H   1.680398  -0.373741   0.758561
  symmetry c1
}

set {
  scf_type df
  mp2_type df
  basis cc-pvdz
  df_basis_mp2 cc-pvdz-ri
  pno_convergence tight
  freeze_core true
  e_convergence 1.0e-6
  r_convergence 1.0e-6
  clear_ccsd_integrals false
}

set dlpno_ccsdt_q {
  print 1
  dlpno_cc3 false
}

energy('dlpno_ccsdt_q')

dlpno_ccsdt_q.exampleFN()
--------------------------------------------------------------------------

    Molecular point group: c1

    Geometry (in Angstrom), charge = 0, multiplicity = 1:

       Center              X                  Y                   Z               Mass
    ------------   -----------------  -----------------  -----------------  -----------------
         O           -1.485163346101    -0.114724564047     0.000000000000    15.994914619570
         H           -1.868415346101     0.762298435953     0.000000000000     1.007825032230
         H           -0.533833346101     0.040507435953     0.000000000000     1.007825032230
      Gh(O)           1.416468653899     0.111264435953     0.000000000000    15.994914619570
      Gh(H)           1.746241653899    -0.373945564047    -0.758561000000     1.007825032230
      Gh(H)           1.746241653899    -0.373945564047     0.758561000000     1.007825032230

  Charge       = 0
  Multiplicity = 1
  Basis Set: CC-PVDZ
    Blend: CC-PVDZ
  Basis Set: (CC-PVDZ AUX)
    Blend: CC-PVDZ-JKFIT

    Orbital Energies [Eh]
    ---------------------

    Doubly Occupied:

       1A    -20.552004     2A     -1.335767     3A     -0.697798
       4A     -0.566808     5A     -0.493506

  @DF-RHF Final Energy:   -76.02693045930965

   => Energetics <=

    Nuclear Repulsion Energy =              9.1638301819855617
    One-Electron Energy =                -123.0897541905356718
    Two-Electron Energy =                  37.8989935492404513
    Total Energy =                        -76.0269304593096535
 Dipole X            :         27.3771080          -26.9920079            0.3851001
 Dipole Y            :          0.9312720           -0.2173008            0.7139712
 Dipole Z            :          0.0000000           -0.0000000            0.0000000
 Magnitude           :                                                    0.8112071
*** Psi4 exiting successfully. Buy a developer a beer!
