                               Psi4 1.10a1.dev45

  ==> Input File <==

--------------------------------------------------------------------------

# PYTHONPATH must include directory above plugin directory.
#     Define either externally or here, then import plugin.
sys.path.insert(0, './..')
import dlpno_ccsdt_q

molecule mol {
0 1
O  -1.551007  -0.114520   0.000000
H  -1.934259   0.762503   0.000000
H  -0.599677   0.040712   0.000000
--
0 1
O   1.350625   0.111469   0.000000
H   1.680398  -0.373741  -0.758561
H   1.680398  -0.373741   0.758561
units angstrom
symmetry c1
}

set {
  scf_type df
  mp2_type df
  basis cc-pvdz
  df_basis_mp2 cc-pvdz-ri
  pno_convergence tight
  freeze_core true
  e_convergence 1.0e-6
  r_convergence 1.0e-6
}

set dlpno_ccsdt_q {
  print 1
}

energy('cc3')
energy('dlpno_ccsdt_q')

dlpno_ccsdt_q.exampleFN()
--------------------------------------------------------------------------

    Molecular point group: c1
  Charge       = 0
  Multiplicity = 1
  Basis Set: CC-PVDZ
    Blend: CC-PVDZ
  Basis Set: (CC-PVDZ AUX)
    Blend: CC-PVDZ-JKFIT
  @DF-RHF Final Energy:  -152.06249064688225
    Total Energy =                       -152.0624906468822815
 Dipole X            :          0.0532186            1.0217316            1.0749502
 Dipole Y            :         -0.0216731            0.0514643            0.0297912
 Dipole Z            :          0.0000000            0.0000000            0.0000000
 Magnitude           :                                                    1.0753630
      * MP2 total energy                      = -152.468682566828932
    Molecular point group: c1

    Geometry (in Angstrom), charge = 0, multiplicity = 1:

       Center              X                  Y                   Z               Mass
    ------------   -----------------  -----------------  -----------------  -----------------
         O           -1.485163346101    -0.114724564047    -0.000000000000    15.994914619570
         H           -1.868415346101     0.762298435953    -0.000000000000     1.007825032230
         H           -0.533833346101     0.040507435953    -0.000000000000     1.007825032230
         O            1.416468653899     0.111264435953    -0.000000000000    15.994914619570
         H            1.746241653899    -0.373945564047    -0.758561000000     1.007825032230
         H            1.746241653899    -0.373945564047     0.758561000000     1.007825032230

  Charge       = 0
  Multiplicity = 1
  Basis Set: CC-PVDZ
    Blend: CC-PVDZ
  Basis Set: (CC-PVDZ AUX)
    Blend: CC-PVDZ-JKFIT

    Orbital Energies [Eh]
    ---------------------

    Doubly Occupied:

       1A    -20.584139     2A    -20.516106     3A     -1.369043
       4A     -1.303696     5A     -0.729721     6A     -0.674428
       7A     -0.600391     8A     -0.543215     9A     -0.514810
      10A     -0.462398

  @DF-RHF Final Energy:  -152.06249064688319

   => Energetics <=

    Nuclear Repulsion Energy =             36.6628479968634053
    One-Electron Energy =                -282.8547860837106782
    Two-Electron Energy =                  94.1294474399640819
    Total Energy =                       -152.0624906468831909
 Dipole X            :          0.0532186            1.0217316            1.0749502
 Dipole Y            :         -0.0216731            0.0514643            0.0297912
 Dipole Z            :         -0.0000000            0.0000000           -0.0000000
 Magnitude           :                                                    1.0753630
*** Psi4 exiting successfully. Buy a developer a beer!
